 Output coordinates in angstroms (scale by  1.889725989 to convert to a.u.)

  No.       Tag          Charge          X              Y              Z
 ---- ---------------- ---------- -------------- -------------- --------------
    1 C                    6.0000    -0.69552210     3.66769632    -0.00154639
    2 C                    6.0000    -1.41471681     2.47711381     0.01785176
    3 H                    1.0000    -1.22523380     4.61777238     0.02461471
    4 C                    6.0000     0.69623184     3.66838097     0.00499082
    5 H                    1.0000    -2.47882444     2.47502074    -0.19002822
    6 C                    6.0000    -0.70945518     1.22797557     0.00093783
    7 C                    6.0000     1.41363885     2.47710517    -0.02395407
    8 H                    1.0000     1.22619696     4.61736497     0.02247836
    9 C                    6.0000    -1.41780699    -0.00004677     0.03937528
   10 C                    6.0000     0.70933690     1.22824879    -0.01260118
   11 H                    1.0000     2.47920608     2.46883691     0.18333631
   12 H                    1.0000    -2.47560973    -0.00175284    -0.20431828
   13 C                    6.0000    -0.70933690    -1.22824879     0.01260118
   14 C                    6.0000     1.41780699     0.00004677    -0.03937528
   15 C                    6.0000    -1.41363885    -2.47710517     0.02395407
   16 C                    6.0000     0.70945518    -1.22797557    -0.00093783
   17 H                    1.0000     2.47560973     0.00175284     0.20431828
   18 H                    1.0000    -2.47920608    -2.46883691    -0.18333631
   19 C                    6.0000    -0.69623184    -3.66838097    -0.00499082
   20 C                    6.0000     1.41471681    -2.47711381    -0.01785176
   21 H                    1.0000    -1.22619696    -4.61736497    -0.02247836
   22 C                    6.0000     0.69552210    -3.66769632     0.00154639
   23 H                    1.0000     2.47882444    -2.47502074     0.19002822
   24 H                    1.0000     1.22523380    -4.61777238    -0.02461471

         Total DFT energy =     -539.652808718455

                       DFT Final Molecular Orbital Analysis
                       ------------------------------------

 Vector   14  Occ=2.000000D+00  E=-1.018647D+01  Symmetry=au

 Vector   48  Occ=0.000000D+00  E=-8.476781D-02  Symmetry=au

 Vector   49  Occ=0.000000D+00  E=-2.568519D-02  Symmetry=au

 Vector   50  Occ=0.000000D+00  E=-2.352997D-02  Symmetry=ag

 Vector   51  Occ=0.000000D+00  E=-7.273474D-03  Symmetry=au

 Vector   52  Occ=0.000000D+00  E= 4.049740D-03  Symmetry=ag

 Vector   53  Occ=0.000000D+00  E= 1.030105D-02  Symmetry=au

 Vector   54  Occ=0.000000D+00  E= 1.636053D-02  Symmetry=au

 Vector   55  Occ=0.000000D+00  E= 2.972233D-02  Symmetry=ag

 Vector   56  Occ=0.000000D+00  E= 3.218360D-02  Symmetry=ag

 Vector   57  Occ=0.000000D+00  E= 4.156254D-02  Symmetry=ag

 Vector   58  Occ=0.000000D+00  E= 4.350598D-02  Symmetry=ag

 Vector   59  Occ=0.000000D+00  E= 5.052148D-02  Symmetry=au

 Vector   60  Occ=0.000000D+00  E= 5.140254D-02  Symmetry=au

 Vector   61  Occ=0.000000D+00  E= 5.310249D-02  Symmetry=au

 Vector   62  Occ=0.000000D+00  E= 5.921819D-02  Symmetry=ag

 Vector   63  Occ=0.000000D+00  E= 6.215990D-02  Symmetry=ag

 Vector   64  Occ=0.000000D+00  E= 6.737510D-02  Symmetry=au

 Vector   65  Occ=0.000000D+00  E= 7.476326D-02  Symmetry=ag

 Vector   66  Occ=0.000000D+00  E= 7.855594D-02  Symmetry=ag

 Vector   67  Occ=0.000000D+00  E= 9.161362D-02  Symmetry=au

 Vector   68  Occ=0.000000D+00  E= 9.474484D-02  Symmetry=au

 Vector   69  Occ=0.000000D+00  E= 1.125189D-01  Symmetry=ag

 Vector   70  Occ=0.000000D+00  E= 1.156934D-01  Symmetry=au

 Vector   71  Occ=0.000000D+00  E= 1.179939D-01  Symmetry=au

 Vector   72  Occ=0.000000D+00  E= 1.196447D-01  Symmetry=au

 Vector   73  Occ=0.000000D+00  E= 1.230378D-01  Symmetry=au

 Vector   74  Occ=0.000000D+00  E= 1.272861D-01  Symmetry=ag

 Vector   75  Occ=0.000000D+00  E= 1.298707D-01  Symmetry=ag

 Vector   76  Occ=0.000000D+00  E= 1.352025D-01  Symmetry=au

 Vector   77  Occ=0.000000D+00  E= 1.436014D-01  Symmetry=ag

 Vector   78  Occ=0.000000D+00  E= 1.477811D-01  Symmetry=ag

 Vector   79  Occ=0.000000D+00  E= 1.551101D-01  Symmetry=ag

 Vector   80  Occ=0.000000D+00  E= 1.617427D-01  Symmetry=ag

 Vector   81  Occ=0.000000D+00  E= 1.622855D-01  Symmetry=au

 Vector   82  Occ=0.000000D+00  E= 1.720310D-01  Symmetry=ag

 Vector   83  Occ=0.000000D+00  E= 1.723973D-01  Symmetry=au

 Vector   84  Occ=0.000000D+00  E= 1.810826D-01  Symmetry=au

 Vector   85  Occ=0.000000D+00  E= 1.818636D-01  Symmetry=au

 Vector   86  Occ=0.000000D+00  E= 1.872669D-01  Symmetry=au

 Vector   87  Occ=0.000000D+00  E= 1.913565D-01  Symmetry=ag

 Vector   88  Occ=0.000000D+00  E= 1.933076D-01  Symmetry=ag

 Vector   89  Occ=0.000000D+00  E= 1.937828D-01  Symmetry=au

 Vector   90  Occ=0.000000D+00  E= 1.993305D-01  Symmetry=au

 Vector   91  Occ=0.000000D+00  E= 2.013822D-01  Symmetry=ag

 Vector   92  Occ=0.000000D+00  E= 2.037464D-01  Symmetry=au

 Vector   93  Occ=0.000000D+00  E= 2.053227D-01  Symmetry=ag

 Vector   94  Occ=0.000000D+00  E= 2.073457D-01  Symmetry=ag

 Vector   95  Occ=0.000000D+00  E= 2.185714D-01  Symmetry=au

 Vector   96  Occ=0.000000D+00  E= 2.192281D-01  Symmetry=ag

 Vector   97  Occ=0.000000D+00  E= 2.250636D-01  Symmetry=au

 Vector   98  Occ=0.000000D+00  E= 2.289798D-01  Symmetry=ag

 Vector   99  Occ=0.000000D+00  E= 2.293933D-01  Symmetry=ag

 Vector  100  Occ=0.000000D+00  E= 2.383785D-01  Symmetry=ag

 Vector  101  Occ=0.000000D+00  E= 2.441344D-01  Symmetry=au

 Vector  102  Occ=0.000000D+00  E= 2.470332D-01  Symmetry=ag

 Vector  103  Occ=0.000000D+00  E= 2.494483D-01  Symmetry=au

 Vector  104  Occ=0.000000D+00  E= 2.563193D-01  Symmetry=ag

 Vector  105  Occ=0.000000D+00  E= 2.577851D-01  Symmetry=au

 Vector  106  Occ=0.000000D+00  E= 2.646020D-01  Symmetry=ag

 Vector  107  Occ=0.000000D+00  E= 2.773780D-01  Symmetry=ag

 Vector  108  Occ=0.000000D+00  E= 2.842218D-01  Symmetry=au

 Vector  109  Occ=0.000000D+00  E= 2.963832D-01  Symmetry=ag

 Vector  110  Occ=0.000000D+00  E= 2.994859D-01  Symmetry=au

 Vector  111  Occ=0.000000D+00  E= 3.069871D-01  Symmetry=au

 Vector  112  Occ=0.000000D+00  E= 3.095534D-01  Symmetry=ag

 Vector  113  Occ=0.000000D+00  E= 3.238254D-01  Symmetry=au

 Vector  114  Occ=0.000000D+00  E= 3.258459D-01  Symmetry=au

 Vector  115  Occ=0.000000D+00  E= 3.302444D-01  Symmetry=au

 Vector  116  Occ=0.000000D+00  E= 3.356331D-01  Symmetry=ag

 Vector  117  Occ=0.000000D+00  E= 3.525700D-01  Symmetry=ag

 Vector  118  Occ=0.000000D+00  E= 3.620095D-01  Symmetry=au

 Vector  119  Occ=0.000000D+00  E= 3.866327D-01  Symmetry=ag

 Vector  120  Occ=0.000000D+00  E= 4.406624D-01  Symmetry=au

 Vector  121  Occ=0.000000D+00  E= 4.459854D-01  Symmetry=au

 Vector  122  Occ=0.000000D+00  E= 4.617845D-01  Symmetry=ag

 Vector  123  Occ=0.000000D+00  E= 4.677717D-01  Symmetry=au

 Vector  124  Occ=0.000000D+00  E= 4.863433D-01  Symmetry=ag

 Vector  125  Occ=0.000000D+00  E= 4.877614D-01  Symmetry=ag

 Vector  126  Occ=0.000000D+00  E= 4.978047D-01  Symmetry=au

 Vector  127  Occ=0.000000D+00  E= 5.055507D-01  Symmetry=ag

     Multipole analysis of the density
     ---------------------------------

     L   x y z        total         alpha         beta         nuclear
     -   - - -        -----         -----         ----         -------
     0   0 0 0     -0.000000    -47.000000    -47.000000     94.000000

     1   1 0 0      0.000000      0.000000      0.000000      0.000000
     1   0 1 0      0.000000      0.000000      0.000000      0.000000
     1   0 0 1     -0.000000     -0.000000     -0.000000      0.000000

     2   2 0 0    -52.431466   -273.812392   -273.812392    495.193317
     2   1 1 0      0.018000      0.019805      0.019805     -0.021609
     2   1 0 1      2.334274     -1.364054     -1.364054      5.062381
     2   0 2 0    -51.637609  -1125.888131  -1125.888131   2200.138654
     2   0 1 1      0.261172     -0.223935     -0.223935      0.709041

 Total times  cpu:       72.2s     wall:       78.5s
